 TITLE = " disp    time =  0.0000    prop =  0.0000 "
 VARIABLES = X Y Z UX UY UZ
 ZONE T = "ZONE ONE", I =   150,J =   228, F = FEPOINT
  0.000000E+00  0.208096E+02  0.287407E+01  0.000000E+00  0.000000E+00  0.000000E+00
  0.286237E+03  0.208096E+02  0.287407E+01  0.000000E+00  0.000000E+00  0.000000E+00
  0.573718E+03  0.208096E+02  0.718517E+00  0.000000E+00  0.000000E+00  0.000000E+00
  0.859955E+03  0.208096E+02  0.718517E+00  0.000000E+00  0.000000E+00  0.000000E+00
  0.114744E+04  0.208096E+02  0.287407E+01  0.000000E+00  0.000000E+00  0.000000E+00
  0.143367E+04  0.208096E+02  0.287407E+01  0.000000E+00  0.000000E+00  0.000000E+00
  0.171991E+04  0.208096E+02  0.287407E+01  0.000000E+00  0.000000E+00  0.000000E+00
  0.200739E+04  0.208096E+02  0.718517E+00  0.000000E+00  0.000000E+00  0.000000E+00
  0.229363E+04  0.208096E+02  0.718517E+00  0.000000E+00  0.000000E+00  0.000000E+00
  0.258111E+04  0.208096E+02  0.287407E+01  0.000000E+00  0.000000E+00  0.000000E+00
  0.286735E+04  0.208096E+02  0.287407E+01  0.000000E+00  0.000000E+00  0.000000E+00
  0.286735E+04  0.541071E+03  0.143703E+01  0.000000E+00  0.000000E+00  0.000000E+00
  0.286735E+04  0.106133E+04  0.000000E+00  0.000000E+00  0.000000E+00  0.000000E+00
  0.286735E+04  0.158160E+04  0.287407E+01  0.000000E+00  0.000000E+00  0.000000E+00
  0.286735E+04  0.210186E+04  0.143703E+01  0.000000E+00  0.000000E+00  0.000000E+00
  0.286735E+04  0.262212E+04  0.000000E+00  0.000000E+00  0.000000E+00  0.000000E+00
  0.286735E+04  0.314238E+04  0.287407E+01  0.000000E+00  0.000000E+00  0.000000E+00
  0.286735E+04  0.366264E+04  0.143703E+01  0.000000E+00  0.000000E+00  0.000000E+00
  0.286735E+04  0.418290E+04  0.000000E+00  0.000000E+00  0.000000E+00  0.000000E+00
  0.286735E+04  0.470317E+04  0.287407E+01  0.000000E+00  0.000000E+00  0.000000E+00
  0.286735E+04  0.522140E+04  0.287407E+01  0.000000E+00  0.000000E+00  0.000000E+00
  0.229363E+04  0.522140E+04  0.718517E+00  0.000000E+00  0.000000E+00  0.000000E+00
  0.171991E+04  0.522140E+04  0.287407E+01  0.000000E+00  0.000000E+00  0.000000E+00
  0.114744E+04  0.522140E+04  0.287407E+01  0.000000E+00  0.000000E+00  0.000000E+00
  0.573718E+03  0.522140E+04  0.718517E+00  0.000000E+00  0.000000E+00  0.000000E+00
  0.000000E+00  0.522140E+04  0.287407E+01  0.000000E+00  0.000000E+00  0.000000E+00
 -0.573718E+03  0.522140E+04  0.718517E+00  0.000000E+00  0.000000E+00  0.000000E+00
 -0.114744E+04  0.522140E+04  0.287407E+01  0.000000E+00  0.000000E+00  0.000000E+00
 -0.171991E+04  0.522140E+04  0.287407E+01  0.000000E+00  0.000000E+00  0.000000E+00
 -0.229363E+04  0.522140E+04  0.718517E+00  0.000000E+00  0.000000E+00  0.000000E+00
 -0.286735E+04  0.522140E+04  0.287407E+01  0.000000E+00  0.000000E+00  0.000000E+00
 -0.286735E+04  0.470317E+04  0.287407E+01  0.000000E+00  0.000000E+00  0.000000E+00
 -0.286735E+04  0.418290E+04  0.000000E+00  0.000000E+00  0.000000E+00  0.000000E+00
 -0.286735E+04  0.366264E+04  0.143703E+01  0.000000E+00  0.000000E+00  0.000000E+00
 -0.286735E+04  0.314238E+04  0.287407E+01  0.000000E+00  0.000000E+00  0.000000E+00
 -0.286735E+04  0.262212E+04  0.000000E+00  0.000000E+00  0.000000E+00  0.000000E+00
 -0.286735E+04  0.210186E+04  0.143703E+01  0.000000E+00  0.000000E+00  0.000000E+00
 -0.286735E+04  0.158160E+04  0.287407E+01  0.000000E+00  0.000000E+00  0.000000E+00
 -0.286735E+04  0.106133E+04  0.000000E+00  0.000000E+00  0.000000E+00  0.000000E+00
 -0.286735E+04  0.541071E+03  0.143703E+01  0.000000E+00  0.000000E+00  0.000000E+00
 -0.286735E+04  0.208096E+02  0.287407E+01  0.000000E+00  0.000000E+00  0.000000E+00
 -0.258111E+04  0.208096E+02  0.287407E+01  0.000000E+00  0.000000E+00  0.000000E+00
 -0.229363E+04  0.208096E+02  0.718517E+00  0.000000E+00  0.000000E+00  0.000000E+00
 -0.200739E+04  0.208096E+02  0.718517E+00  0.000000E+00  0.000000E+00  0.000000E+00
 -0.171991E+04  0.208096E+02  0.287407E+01  0.000000E+00  0.000000E+00  0.000000E+00
 -0.143367E+04  0.208096E+02  0.287407E+01  0.000000E+00  0.000000E+00  0.000000E+00
 -0.114744E+04  0.208096E+02  0.287407E+01  0.000000E+00  0.000000E+00  0.000000E+00
 -0.859955E+03  0.208096E+02  0.718517E+00  0.000000E+00  0.000000E+00  0.000000E+00
 -0.573718E+03  0.208096E+02  0.718517E+00  0.000000E+00  0.000000E+00  0.000000E+00
 -0.286237E+03  0.208096E+02  0.287407E+01  0.000000E+00  0.000000E+00  0.000000E+00
  0.124451E+01  0.176450E+04  0.718517E+00  0.000000E+00  0.000000E+00  0.000000E+00
 -0.124451E+01  0.176450E+04  0.718517E+00  0.000000E+00  0.000000E+00  0.000000E+00
 -0.124451E+01  0.193928E+04  0.215555E+01  0.000000E+00  0.000000E+00  0.000000E+00
 -0.124451E+01  0.211405E+04  0.359258E+01  0.000000E+00  0.000000E+00  0.000000E+00
 -0.124451E+01  0.228679E+04  0.215555E+01  0.000000E+00  0.000000E+00  0.000000E+00
 -0.124451E+01  0.246157E+04  0.359258E+01  0.000000E+00  0.000000E+00  0.000000E+00
 -0.124451E+01  0.263634E+04  0.718517E+00  0.000000E+00  0.000000E+00  0.000000E+00
 -0.124451E+01  0.281112E+04  0.215555E+01  0.000000E+00  0.000000E+00  0.000000E+00
 -0.124451E+01  0.298590E+04  0.359258E+01  0.000000E+00  0.000000E+00  0.000000E+00
 -0.124451E+01  0.316067E+04  0.718517E+00  0.000000E+00  0.000000E+00  0.000000E+00
 -0.124451E+01  0.333341E+04  0.359258E+01  0.000000E+00  0.000000E+00  0.000000E+00
 -0.124451E+01  0.350819E+04  0.718517E+00  0.000000E+00  0.000000E+00  0.000000E+00
  0.124451E+01  0.350819E+04  0.718517E+00  0.000000E+00  0.000000E+00  0.000000E+00
  0.124451E+01  0.333341E+04  0.359258E+01  0.000000E+00  0.000000E+00  0.000000E+00
  0.124451E+01  0.316067E+04  0.718517E+00  0.000000E+00  0.000000E+00  0.000000E+00
  0.124451E+01  0.298590E+04  0.359258E+01  0.000000E+00  0.000000E+00  0.000000E+00
  0.124451E+01  0.281112E+04  0.215555E+01  0.000000E+00  0.000000E+00  0.000000E+00
  0.124451E+01  0.263634E+04  0.718517E+00  0.000000E+00  0.000000E+00  0.000000E+00
  0.124451E+01  0.246157E+04  0.359258E+01  0.000000E+00  0.000000E+00  0.000000E+00
  0.124451E+01  0.228679E+04  0.215555E+01  0.000000E+00  0.000000E+00  0.000000E+00
  0.124451E+01  0.211405E+04  0.359258E+01  0.000000E+00  0.000000E+00  0.000000E+00
  0.124451E+01  0.193928E+04  0.215555E+01  0.000000E+00  0.000000E+00  0.000000E+00
 -0.229363E+04  0.541071E+03  0.359258E+01  0.000000E+00  0.000000E+00  0.000000E+00
 -0.229363E+04  0.106133E+04  0.215555E+01  0.000000E+00  0.000000E+00  0.000000E+00
 -0.229363E+04  0.158160E+04  0.718517E+00  0.000000E+00  0.000000E+00  0.000000E+00
 -0.229363E+04  0.210186E+04  0.359258E+01  0.000000E+00  0.000000E+00  0.000000E+00
 -0.229363E+04  0.262212E+04  0.215555E+01  0.000000E+00  0.000000E+00  0.000000E+00
 -0.229363E+04  0.314238E+04  0.718517E+00  0.000000E+00  0.000000E+00  0.000000E+00
 -0.229363E+04  0.366264E+04  0.359258E+01  0.000000E+00  0.000000E+00  0.000000E+00
 -0.229363E+04  0.418290E+04  0.215555E+01  0.000000E+00  0.000000E+00  0.000000E+00
 -0.229363E+04  0.470317E+04  0.718517E+00  0.000000E+00  0.000000E+00  0.000000E+00
 -0.171991E+04  0.541071E+03  0.143703E+01  0.000000E+00  0.000000E+00  0.000000E+00
 -0.171991E+04  0.106133E+04  0.000000E+00  0.000000E+00  0.000000E+00  0.000000E+00
 -0.171991E+04  0.158160E+04  0.287407E+01  0.000000E+00  0.000000E+00  0.000000E+00
 -0.171991E+04  0.210186E+04  0.143703E+01  0.000000E+00  0.000000E+00  0.000000E+00
 -0.171991E+04  0.262212E+04  0.000000E+00  0.000000E+00  0.000000E+00  0.000000E+00
 -0.171991E+04  0.314238E+04  0.287407E+01  0.000000E+00  0.000000E+00  0.000000E+00
 -0.171991E+04  0.366264E+04  0.143703E+01  0.000000E+00  0.000000E+00  0.000000E+00
 -0.171991E+04  0.418290E+04  0.000000E+00  0.000000E+00  0.000000E+00  0.000000E+00
 -0.171991E+04  0.470317E+04  0.287407E+01  0.000000E+00  0.000000E+00  0.000000E+00
 -0.114744E+04  0.541071E+03  0.143703E+01  0.000000E+00  0.000000E+00  0.000000E+00
 -0.114744E+04  0.106133E+04  0.000000E+00  0.000000E+00  0.000000E+00  0.000000E+00
 -0.114744E+04  0.158160E+04  0.287407E+01  0.000000E+00  0.000000E+00  0.000000E+00
 -0.114744E+04  0.210186E+04  0.143703E+01  0.000000E+00  0.000000E+00  0.000000E+00
 -0.114744E+04  0.262212E+04  0.000000E+00  0.000000E+00  0.000000E+00  0.000000E+00
 -0.114744E+04  0.314238E+04  0.287407E+01  0.000000E+00  0.000000E+00  0.000000E+00
 -0.114744E+04  0.366264E+04  0.143703E+01  0.000000E+00  0.000000E+00  0.000000E+00
 -0.114744E+04  0.418290E+04  0.000000E+00  0.000000E+00  0.000000E+00  0.000000E+00
 -0.114744E+04  0.470317E+04  0.287407E+01  0.000000E+00  0.000000E+00  0.000000E+00
 -0.573718E+03  0.541071E+03  0.359258E+01  0.000000E+00  0.000000E+00  0.000000E+00
 -0.573718E+03  0.106133E+04  0.215555E+01  0.000000E+00  0.000000E+00  0.000000E+00
 -0.573718E+03  0.158160E+04  0.718517E+00  0.000000E+00  0.000000E+00  0.000000E+00
 -0.573718E+03  0.210186E+04  0.359258E+01  0.000000E+00  0.000000E+00  0.000000E+00
 -0.573718E+03  0.262212E+04  0.215555E+01  0.000000E+00  0.000000E+00  0.000000E+00
 -0.573718E+03  0.314238E+04  0.718517E+00  0.000000E+00  0.000000E+00  0.000000E+00
 -0.573718E+03  0.366264E+04  0.359258E+01  0.000000E+00  0.000000E+00  0.000000E+00
 -0.573718E+03  0.418290E+04  0.215555E+01  0.000000E+00  0.000000E+00  0.000000E+00
 -0.573718E+03  0.470317E+04  0.718517E+00  0.000000E+00  0.000000E+00  0.000000E+00
  0.000000E+00  0.541071E+03  0.143703E+01  0.000000E+00  0.000000E+00  0.000000E+00
  0.000000E+00  0.106133E+04  0.000000E+00  0.000000E+00  0.000000E+00  0.000000E+00
  0.000000E+00  0.158160E+04  0.287407E+01  0.000000E+00  0.000000E+00  0.000000E+00
  0.229363E+04  0.366264E+04  0.359258E+01  0.000000E+00  0.000000E+00  0.000000E+00
  0.229363E+04  0.418290E+04  0.215555E+01  0.000000E+00  0.000000E+00  0.000000E+00
  0.229363E+04  0.470317E+04  0.718517E+00  0.000000E+00  0.000000E+00  0.000000E+00
  0.000000E+00  0.366264E+04  0.143703E+01  0.000000E+00  0.000000E+00  0.000000E+00
  0.000000E+00  0.418290E+04  0.000000E+00  0.000000E+00  0.000000E+00  0.000000E+00
  0.000000E+00  0.470317E+04  0.287407E+01  0.000000E+00  0.000000E+00  0.000000E+00
  0.573718E+03  0.541071E+03  0.359258E+01  0.000000E+00  0.000000E+00  0.000000E+00
  0.573718E+03  0.106133E+04  0.215555E+01  0.000000E+00  0.000000E+00  0.000000E+00
  0.573718E+03  0.158160E+04  0.718517E+00  0.000000E+00  0.000000E+00  0.000000E+00
  0.573718E+03  0.210186E+04  0.359258E+01  0.000000E+00  0.000000E+00  0.000000E+00
  0.573718E+03  0.262212E+04  0.215555E+01  0.000000E+00  0.000000E+00  0.000000E+00
  0.573718E+03  0.314238E+04  0.718517E+00  0.000000E+00  0.000000E+00  0.000000E+00
  0.573718E+03  0.366264E+04  0.359258E+01  0.000000E+00  0.000000E+00  0.000000E+00
  0.573718E+03  0.418290E+04  0.215555E+01  0.000000E+00  0.000000E+00  0.000000E+00
  0.573718E+03  0.470317E+04  0.718517E+00  0.000000E+00  0.000000E+00  0.000000E+00
  0.114744E+04  0.541071E+03  0.143703E+01  0.000000E+00  0.000000E+00  0.000000E+00
  0.114744E+04  0.106133E+04  0.000000E+00  0.000000E+00  0.000000E+00  0.000000E+00
  0.114744E+04  0.158160E+04  0.287407E+01  0.000000E+00  0.000000E+00  0.000000E+00
  0.114744E+04  0.210186E+04  0.143703E+01  0.000000E+00  0.000000E+00  0.000000E+00
  0.114744E+04  0.262212E+04  0.000000E+00  0.000000E+00  0.000000E+00  0.000000E+00
  0.114744E+04  0.314238E+04  0.287407E+01  0.000000E+00  0.000000E+00  0.000000E+00
  0.114744E+04  0.366264E+04  0.143703E+01  0.000000E+00  0.000000E+00  0.000000E+00
  0.114744E+04  0.418290E+04  0.000000E+00  0.000000E+00  0.000000E+00  0.000000E+00
  0.114744E+04  0.470317E+04  0.287407E+01  0.000000E+00  0.000000E+00  0.000000E+00
  0.171991E+04  0.541071E+03  0.143703E+01  0.000000E+00  0.000000E+00  0.000000E+00
  0.171991E+04  0.106133E+04  0.000000E+00  0.000000E+00  0.000000E+00  0.000000E+00
  0.171991E+04  0.158160E+04  0.287407E+01  0.000000E+00  0.000000E+00  0.000000E+00
  0.171991E+04  0.210186E+04  0.143703E+01  0.000000E+00  0.000000E+00  0.000000E+00
  0.171991E+04  0.262212E+04  0.000000E+00  0.000000E+00  0.000000E+00  0.000000E+00
  0.171991E+04  0.314238E+04  0.287407E+01  0.000000E+00  0.000000E+00  0.000000E+00
  0.171991E+04  0.366264E+04  0.143703E+01  0.000000E+00  0.000000E+00  0.000000E+00
  0.171991E+04  0.418290E+04  0.000000E+00  0.000000E+00  0.000000E+00  0.000000E+00
  0.171991E+04  0.470317E+04  0.287407E+01  0.000000E+00  0.000000E+00  0.000000E+00
  0.229363E+04  0.541071E+03  0.359258E+01  0.000000E+00  0.000000E+00  0.000000E+00
  0.229363E+04  0.106133E+04  0.215555E+01  0.000000E+00  0.000000E+00  0.000000E+00
  0.229363E+04  0.158160E+04  0.718517E+00  0.000000E+00  0.000000E+00  0.000000E+00
  0.229363E+04  0.210186E+04  0.359258E+01  0.000000E+00  0.000000E+00  0.000000E+00
  0.229363E+04  0.262212E+04  0.215555E+01  0.000000E+00  0.000000E+00  0.000000E+00
  0.229363E+04  0.314238E+04  0.718517E+00  0.000000E+00  0.000000E+00  0.000000E+00
    39    73    74    74
    39    74    38    38
    42    40    41    41
    82    44    45    45
    82    73    44    44
    75    38    74    74
    40    73    39    39
    42    73    40    40
    43    73    42    42
    44    73    43    43
    82    45    46    46
    91    46    47    47
   100    48    49    49
    83    75    74    74
   121    71    72    72
    83    74    82    82
    82    74    73    73
    91    82    46    46
    91    83    82    82
    84    75    83    83
    92    83    91    91
   123   122   131   131
    48    91    47    47
    92    84    83    83
   100    92    91    91
    93    84    92    92
   118     3     4     4
   100    50   109   109
   119   110   118   118
   127     5     6     6
   120   111   119   119
   118   109     2     2
   101   109   110   110
   121    70    71    71
   102   110   111   111
     1   109    50    50
   118     2     3     3
   118   110   109   109
   101   100   109   109
    52   111    51    51
   102   101   110   110
   122    70   121   121
   131   130   139   139
   127     4     5     5
   119   111   110   110
   127   118     4     4
   120    51   111   111
   128   120   119   119
   130   138   139   139
   100    91    48    48
   100    49    50    50
   101    93    92    92
   101    92   100   100
   102   111    52    52
   102    93   101   101
     1     2   109   109
   145    10    12    12
   139   138   147   147
   136     6     7     7
   136     7     8     8
   136     8   145   145
   145     9    10    10
    12    10    11    11
   146    12    13    13
   146   145    12    12
    14   147    13    13
   137   136   145   145
   145     8     9     9
   136   128   127   127
   127   119   118   118
   137   129   128   128
   128   119   127   127
   131   139   140   140
   129   120   128   128
   147   146    13    13
   137   128   136   136
   148    14    15    15
   147   138   146   146
   149    15    16    16
   136   127     6     6
   137   145   146   146
   137   146   138   138
   137   138   129   129
   103   102    52    52
   132   140   141   141
   148   140   139   139
   104    57    58    58
   149   148    15    15
   112   143   142   142
   121   129   130   130
   130   129   138   138
   132   131   140   140
   122   121   130   130
    67   123    66    66
   105    58    59    59
   149   141   140   140
   150   149    16    16
   148   139   147   147
   148   147    14    14
   113   112    18    18
   150    16    17    17
   149   140   148   148
    65   123    64    64
   150   141   149   149
   121    51   120   120
   121    72    51    51
   122    69    70    70
   105    59    60    60
    95   104    96    96
   106    61    62    62
   105    60    61    61
    66   123    65    65
    55   104   103   103
    19   114   113   113
    96   104   105   105
    87    86    95    95
    88    87    96    96
   103    52    53    53
   121   120   129   129
   122   130   131   131
   103    53    54    54
   106   115   107   107
   106    97   105   105
   124    64   123   123
   123   131   132   132
    68    69   122   122
    94   102   103   103
    56    57   104   104
   105   104    58    58
    95   103   104   104
   133   141   142   142
    55   103    54    54
    67   122   123   123
    68   122    67    67
   106    62   115   115
    85    76    84    84
    56   104    55    55
    36    77    35    35
    85    77    76    76
    94    85    93    93
    94   103    95    95
    37    75    76    76
    76    75    84    84
    86    78    77    77
    35    77    78    78
    88    96    97    97
    89    88    97    97
    80    32    33    33
    36    76    77    77
    85    84    93    93
    94    86    85    85
    87    95    96    96
    86    77    85    85
    97    96   105   105
    87    78    86    86
    94    93   102   102
    94    95    86    86
    37    38    75    75
    37    76    36    36
   116   108   107   107
    90    30    81    81
   124   116   115   115
    90    89    98    98
   107    99    98    98
    90    99    29    29
   125   117   116   116
    99    28    29    29
    81    31    32    32
    34    78    79    79
    79    78    87    87
    80    33    79    79
    88    80    79    79
    89    81    80    80
    81    30    31    31
    81    32    80    80
    34    35    78    78
    34    79    33    33
    88    79    87    87
    89    97    98    98
    89    80    88    88
    90    98    99    99
    90    29    30    30
    90    81    89    89
    19   113    18    18
   134   133   142   142
   108    28    99    99
    26   126    25    25
   106    98    97    97
   115    62    63    63
   117    27   108   108
   108    99   107   107
    27    28   108   108
   124    63    64    64
   124   115    63    63
   117   126    26    26
   116   107   115   115
   117    26    27    27
   117   108   116   116
   124   123   132   132
   134   142   143   143
   125   126   117   117
   125   116   124   124
   106   107    98    98
   106   105    61    61
   135   144    24    24
    22    20    21    21
   133   125   124   124
   142   141   150   150
   113   144   143   143
   134   126   125   125
   114    23   144   144
   135   134   143   143
    24   144    23    23
   135    25   126   126
   133   124   132   132
   133   132   141   141
   135   143   144   144
   134   125   133   133
   135    24    25    25
   135   126   134   134
   112    17    18    18
   112   142   150   150
   112   150    17    17
   114    20    22    22
   113   143   112   112
   114    22    23    23
   114   144   113   113
    19    20   114   114
