 TITLE = " disp    time =  0.0000    prop =  0.0000 "
 VARIABLES = X Y Z UX UY UZ
 ZONE T = "ZONE ONE", I =   139,J =   215, F = FEPOINT
  0.286610E+04  0.522140E+04  0.718517E+00  0.000000E+00  0.000000E+00  0.000000E+00
  0.229363E+04  0.522140E+04  0.718517E+00  0.000000E+00  0.000000E+00  0.000000E+00
  0.171991E+04  0.522140E+04  0.287407E+01  0.000000E+00  0.000000E+00  0.000000E+00
  0.114744E+04  0.522140E+04  0.287407E+01  0.000000E+00  0.000000E+00  0.000000E+00
  0.573718E+03  0.522140E+04  0.718517E+00  0.000000E+00  0.000000E+00  0.000000E+00
  0.000000E+00  0.522140E+04  0.287407E+01  0.000000E+00  0.000000E+00  0.000000E+00
 -0.573718E+03  0.522140E+04  0.718517E+00  0.000000E+00  0.000000E+00  0.000000E+00
 -0.114744E+04  0.522140E+04  0.287407E+01  0.000000E+00  0.000000E+00  0.000000E+00
 -0.171991E+04  0.522140E+04  0.287407E+01  0.000000E+00  0.000000E+00  0.000000E+00
 -0.229363E+04  0.522140E+04  0.718517E+00  0.000000E+00  0.000000E+00  0.000000E+00
 -0.286735E+04  0.522140E+04  0.287407E+01  0.000000E+00  0.000000E+00  0.000000E+00
 -0.286735E+04  0.470317E+04  0.287407E+01  0.000000E+00  0.000000E+00  0.000000E+00
 -0.286735E+04  0.418290E+04  0.000000E+00  0.000000E+00  0.000000E+00  0.000000E+00
 -0.286735E+04  0.366264E+04  0.143703E+01  0.000000E+00  0.000000E+00  0.000000E+00
 -0.286735E+04  0.314238E+04  0.287407E+01  0.000000E+00  0.000000E+00  0.000000E+00
 -0.286735E+04  0.262212E+04  0.000000E+00  0.000000E+00  0.000000E+00  0.000000E+00
 -0.286735E+04  0.210186E+04  0.143703E+01  0.000000E+00  0.000000E+00  0.000000E+00
 -0.286735E+04  0.158160E+04  0.287407E+01  0.000000E+00  0.000000E+00  0.000000E+00
 -0.286735E+04  0.106133E+04  0.000000E+00  0.000000E+00  0.000000E+00  0.000000E+00
 -0.286735E+04  0.541071E+03  0.143703E+01  0.000000E+00  0.000000E+00  0.000000E+00
 -0.286735E+04  0.208096E+02  0.287407E+01  0.000000E+00  0.000000E+00  0.000000E+00
 -0.229363E+04  0.208096E+02  0.718517E+00  0.000000E+00  0.000000E+00  0.000000E+00
 -0.171991E+04  0.208096E+02  0.287407E+01  0.000000E+00  0.000000E+00  0.000000E+00
 -0.114744E+04  0.208096E+02  0.287407E+01  0.000000E+00  0.000000E+00  0.000000E+00
 -0.573718E+03  0.208096E+02  0.718517E+00  0.000000E+00  0.000000E+00  0.000000E+00
  0.000000E+00  0.208096E+02  0.287407E+01  0.000000E+00  0.000000E+00  0.000000E+00
  0.573718E+03  0.208096E+02  0.718517E+00  0.000000E+00  0.000000E+00  0.000000E+00
  0.114744E+04  0.208096E+02  0.287407E+01  0.000000E+00  0.000000E+00  0.000000E+00
  0.171991E+04  0.208096E+02  0.287407E+01  0.000000E+00  0.000000E+00  0.000000E+00
  0.229363E+04  0.208096E+02  0.718517E+00  0.000000E+00  0.000000E+00  0.000000E+00
  0.286610E+04  0.208096E+02  0.718517E+00  0.000000E+00  0.000000E+00  0.000000E+00
  0.263711E+04  0.159004E+03  0.215555E+01  0.000000E+00  0.000000E+00  0.000000E+00
  0.240439E+04  0.301263E+03  0.287407E+01  0.000000E+00  0.000000E+00  0.000000E+00
  0.217416E+04  0.441490E+03  0.718517E+00  0.000000E+00  0.000000E+00  0.000000E+00
  0.194268E+04  0.581717E+03  0.718517E+00  0.000000E+00  0.000000E+00  0.000000E+00
  0.158924E+04  0.368093E+04  0.359258E+01  0.000000E+00  0.000000E+00  0.000000E+00
  0.184561E+04  0.398984E+04  0.718517E+00  0.000000E+00  0.000000E+00  0.000000E+00
  0.210073E+04  0.429874E+04  0.000000E+00  0.000000E+00  0.000000E+00  0.000000E+00
  0.235585E+04  0.460562E+04  0.718517E+00  0.000000E+00  0.000000E+00  0.000000E+00
  0.261098E+04  0.491452E+04  0.000000E+00  0.000000E+00  0.000000E+00  0.000000E+00
 -0.124451E+01  0.176450E+04  0.718517E+00  0.000000E+00  0.000000E+00  0.000000E+00
 -0.124451E+01  0.193928E+04  0.215555E+01  0.000000E+00  0.000000E+00  0.000000E+00
 -0.124451E+01  0.211405E+04  0.359258E+01  0.000000E+00  0.000000E+00  0.000000E+00
 -0.124451E+01  0.228679E+04  0.215555E+01  0.000000E+00  0.000000E+00  0.000000E+00
 -0.124451E+01  0.246157E+04  0.359258E+01  0.000000E+00  0.000000E+00  0.000000E+00
 -0.124451E+01  0.263634E+04  0.718517E+00  0.000000E+00  0.000000E+00  0.000000E+00
 -0.124451E+01  0.281112E+04  0.215555E+01  0.000000E+00  0.000000E+00  0.000000E+00
 -0.124451E+01  0.298590E+04  0.359258E+01  0.000000E+00  0.000000E+00  0.000000E+00
 -0.124451E+01  0.316067E+04  0.718517E+00  0.000000E+00  0.000000E+00  0.000000E+00
 -0.124451E+01  0.333341E+04  0.359258E+01  0.000000E+00  0.000000E+00  0.000000E+00
 -0.124451E+01  0.350819E+04  0.718517E+00  0.000000E+00  0.000000E+00  0.000000E+00
  0.124451E+01  0.350819E+04  0.718517E+00  0.000000E+00  0.000000E+00  0.000000E+00
  0.124451E+01  0.333341E+04  0.359258E+01  0.000000E+00  0.000000E+00  0.000000E+00
  0.124451E+01  0.316067E+04  0.718517E+00  0.000000E+00  0.000000E+00  0.000000E+00
  0.124451E+01  0.298590E+04  0.359258E+01  0.000000E+00  0.000000E+00  0.000000E+00
  0.124451E+01  0.281112E+04  0.215555E+01  0.000000E+00  0.000000E+00  0.000000E+00
  0.124451E+01  0.263634E+04  0.718517E+00  0.000000E+00  0.000000E+00  0.000000E+00
  0.124451E+01  0.246157E+04  0.359258E+01  0.000000E+00  0.000000E+00  0.000000E+00
  0.124451E+01  0.228679E+04  0.215555E+01  0.000000E+00  0.000000E+00  0.000000E+00
  0.124451E+01  0.211405E+04  0.359258E+01  0.000000E+00  0.000000E+00  0.000000E+00
  0.124451E+01  0.193928E+04  0.215555E+01  0.000000E+00  0.000000E+00  0.000000E+00
  0.124451E+01  0.176450E+04  0.718517E+00  0.000000E+00  0.000000E+00  0.000000E+00
  0.000000E+00  0.176247E+04  0.000000E+00  0.000000E+00  0.000000E+00  0.000000E+00
 -0.229363E+04  0.541071E+03  0.359258E+01  0.000000E+00  0.000000E+00  0.000000E+00
 -0.229363E+04  0.106133E+04  0.215555E+01  0.000000E+00  0.000000E+00  0.000000E+00
 -0.229363E+04  0.158160E+04  0.718517E+00  0.000000E+00  0.000000E+00  0.000000E+00
 -0.229363E+04  0.210186E+04  0.359258E+01  0.000000E+00  0.000000E+00  0.000000E+00
 -0.229363E+04  0.262212E+04  0.215555E+01  0.000000E+00  0.000000E+00  0.000000E+00
 -0.229363E+04  0.314238E+04  0.718517E+00  0.000000E+00  0.000000E+00  0.000000E+00
 -0.229363E+04  0.366264E+04  0.359258E+01  0.000000E+00  0.000000E+00  0.000000E+00
 -0.229363E+04  0.418290E+04  0.215555E+01  0.000000E+00  0.000000E+00  0.000000E+00
 -0.229363E+04  0.470317E+04  0.718517E+00  0.000000E+00  0.000000E+00  0.000000E+00
 -0.171991E+04  0.541071E+03  0.143703E+01  0.000000E+00  0.000000E+00  0.000000E+00
 -0.171991E+04  0.106133E+04  0.000000E+00  0.000000E+00  0.000000E+00  0.000000E+00
 -0.171991E+04  0.158160E+04  0.287407E+01  0.000000E+00  0.000000E+00  0.000000E+00
 -0.171991E+04  0.210186E+04  0.143703E+01  0.000000E+00  0.000000E+00  0.000000E+00
 -0.171991E+04  0.262212E+04  0.000000E+00  0.000000E+00  0.000000E+00  0.000000E+00
 -0.171991E+04  0.314238E+04  0.287407E+01  0.000000E+00  0.000000E+00  0.000000E+00
 -0.171991E+04  0.366264E+04  0.143703E+01  0.000000E+00  0.000000E+00  0.000000E+00
 -0.171991E+04  0.418290E+04  0.000000E+00  0.000000E+00  0.000000E+00  0.000000E+00
 -0.171991E+04  0.470317E+04  0.287407E+01  0.000000E+00  0.000000E+00  0.000000E+00
 -0.114744E+04  0.541071E+03  0.143703E+01  0.000000E+00  0.000000E+00  0.000000E+00
 -0.114744E+04  0.106133E+04  0.000000E+00  0.000000E+00  0.000000E+00  0.000000E+00
 -0.114744E+04  0.158160E+04  0.287407E+01  0.000000E+00  0.000000E+00  0.000000E+00
 -0.114744E+04  0.210186E+04  0.143703E+01  0.000000E+00  0.000000E+00  0.000000E+00
 -0.114744E+04  0.262212E+04  0.000000E+00  0.000000E+00  0.000000E+00  0.000000E+00
 -0.114744E+04  0.314238E+04  0.287407E+01  0.000000E+00  0.000000E+00  0.000000E+00
 -0.114744E+04  0.366264E+04  0.143703E+01  0.000000E+00  0.000000E+00  0.000000E+00
 -0.114744E+04  0.418290E+04  0.000000E+00  0.000000E+00  0.000000E+00  0.000000E+00
 -0.114744E+04  0.470317E+04  0.287407E+01  0.000000E+00  0.000000E+00  0.000000E+00
 -0.573718E+03  0.541071E+03  0.359258E+01  0.000000E+00  0.000000E+00  0.000000E+00
 -0.573718E+03  0.106133E+04  0.215555E+01  0.000000E+00  0.000000E+00  0.000000E+00
 -0.573718E+03  0.158160E+04  0.718517E+00  0.000000E+00  0.000000E+00  0.000000E+00
 -0.573718E+03  0.210186E+04  0.359258E+01  0.000000E+00  0.000000E+00  0.000000E+00
 -0.573718E+03  0.262212E+04  0.215555E+01  0.000000E+00  0.000000E+00  0.000000E+00
 -0.573718E+03  0.314238E+04  0.718517E+00  0.000000E+00  0.000000E+00  0.000000E+00
 -0.573718E+03  0.366264E+04  0.359258E+01  0.000000E+00  0.000000E+00  0.000000E+00
 -0.573718E+03  0.418290E+04  0.215555E+01  0.000000E+00  0.000000E+00  0.000000E+00
 -0.573718E+03  0.470317E+04  0.718517E+00  0.000000E+00  0.000000E+00  0.000000E+00
  0.000000E+00  0.541071E+03  0.143703E+01  0.000000E+00  0.000000E+00  0.000000E+00
  0.000000E+00  0.106133E+04  0.000000E+00  0.000000E+00  0.000000E+00  0.000000E+00
  0.000000E+00  0.158160E+04  0.287407E+01  0.000000E+00  0.000000E+00  0.000000E+00
  0.135527E+04  0.339845E+04  0.718517E+00  0.000000E+00  0.000000E+00  0.000000E+00
  0.161039E+04  0.370735E+04  0.000000E+00  0.000000E+00  0.000000E+00  0.000000E+00
  0.186676E+04  0.401626E+04  0.143703E+01  0.000000E+00  0.000000E+00  0.000000E+00
  0.000000E+00  0.366264E+04  0.143703E+01  0.000000E+00  0.000000E+00  0.000000E+00
  0.000000E+00  0.418290E+04  0.000000E+00  0.000000E+00  0.000000E+00  0.000000E+00
  0.000000E+00  0.470317E+04  0.287407E+01  0.000000E+00  0.000000E+00  0.000000E+00
  0.573718E+03  0.541071E+03  0.359258E+01  0.000000E+00  0.000000E+00  0.000000E+00
  0.573718E+03  0.106133E+04  0.215555E+01  0.000000E+00  0.000000E+00  0.000000E+00
  0.499048E+03  0.145966E+04  0.718517E+00  0.000000E+00  0.000000E+00  0.000000E+00
  0.399487E+03  0.224615E+04  0.718517E+00  0.000000E+00  0.000000E+00  0.000000E+00
  0.573718E+03  0.262212E+04  0.215555E+01  0.000000E+00  0.000000E+00  0.000000E+00
  0.573718E+03  0.314238E+04  0.718517E+00  0.000000E+00  0.000000E+00  0.000000E+00
  0.573718E+03  0.366264E+04  0.359258E+01  0.000000E+00  0.000000E+00  0.000000E+00
  0.573718E+03  0.418290E+04  0.215555E+01  0.000000E+00  0.000000E+00  0.000000E+00
  0.573718E+03  0.470317E+04  0.718517E+00  0.000000E+00  0.000000E+00  0.000000E+00
  0.114744E+04  0.541071E+03  0.143703E+01  0.000000E+00  0.000000E+00  0.000000E+00
  0.114744E+04  0.106133E+04  0.000000E+00  0.000000E+00  0.000000E+00  0.000000E+00
  0.917202E+03  0.120562E+04  0.359258E+01  0.000000E+00  0.000000E+00  0.000000E+00
  0.632210E+03  0.252660E+04  0.287407E+01  0.000000E+00  0.000000E+00  0.000000E+00
  0.888579E+03  0.283551E+04  0.000000E+00  0.000000E+00  0.000000E+00  0.000000E+00
  0.114495E+04  0.314441E+04  0.143703E+01  0.000000E+00  0.000000E+00  0.000000E+00
  0.114744E+04  0.366264E+04  0.143703E+01  0.000000E+00  0.000000E+00  0.000000E+00
  0.114744E+04  0.418290E+04  0.000000E+00  0.000000E+00  0.000000E+00  0.000000E+00
  0.114744E+04  0.470317E+04  0.287407E+01  0.000000E+00  0.000000E+00  0.000000E+00
  0.171991E+04  0.541071E+03  0.143703E+01  0.000000E+00  0.000000E+00  0.000000E+00
  0.156808E+04  0.809331E+03  0.143703E+01  0.000000E+00  0.000000E+00  0.000000E+00
  0.133660E+04  0.949558E+03  0.143703E+01  0.000000E+00  0.000000E+00  0.000000E+00
  0.866178E+03  0.280909E+04  0.143703E+01  0.000000E+00  0.000000E+00  0.000000E+00
  0.112255E+04  0.311799E+04  0.287407E+01  0.000000E+00  0.000000E+00  0.000000E+00
  0.137767E+04  0.342690E+04  0.215555E+01  0.000000E+00  0.000000E+00  0.000000E+00
  0.163279E+04  0.373377E+04  0.287407E+01  0.000000E+00  0.000000E+00  0.000000E+00
  0.171991E+04  0.418290E+04  0.000000E+00  0.000000E+00  0.000000E+00  0.000000E+00
  0.171991E+04  0.470317E+04  0.287407E+01  0.000000E+00  0.000000E+00  0.000000E+00
  0.229363E+04  0.470317E+04  0.718517E+00  0.000000E+00  0.000000E+00  0.000000E+00
  0.198623E+04  0.555297E+03  0.000000E+00  0.000000E+00  0.000000E+00  0.000000E+00
  0.175600E+04  0.695524E+03  0.215555E+01  0.000000E+00  0.000000E+00  0.000000E+00
  0.152452E+04  0.835751E+03  0.215555E+01  0.000000E+00  0.000000E+00  0.000000E+00
    22    64    20    20
    25    82    24    24
    66    18    65    65
    19    64    65    65
    22    20    21    21
    73    65    64    64
    74    73    82    82
    19    65    18    18
    75    83    84    84
    94    93    41    41
    91    83    82    82
    75    74    83    83
    93   101   102   102
    42    94    41    41
    20    64    19    19
    23    64    22    22
    24    73    23    23
    73    64    23    23
    74    82    83    83
    74    66    65    65
    74    65    73    73
    24    82    73    73
    75    66    74    74
   102    62    63    63
   114    55    56    56
   109   101   100   100
    92    91   100   100
   124   123   103   103
    86    94    95    95
   138   128   127   127
   113    56    57    57
    91    25    26    26
    91    26   100   100
   111   102   101   101
   111   101   110   110
   102    63    41    41
    93    92   101   101
    27   100    26    26
    29    34   137   137
    29   137   127   127
   118   110   109   109
   109   100    27    27
    92   100   101   101
    91    82    25    25
    92    84    83    83
    92    83    91    91
    93   102    41    41
    93    84    92    92
   111   110   120   120
   110   101   109   109
   130   120   119   119
   111    62   102   102
    29   127   118   118
   123   139   128   128
   139   118   128   128
   138   127    35    35
   118   127   128   128
    29   118    28    28
    34    35   137   137
   139   129   118   118
   119   110   118   118
   119   118   129   129
    36   132    35    35
   137    35   127   127
   103    35   132   132
    28   109    27    27
    28   118   109   109
   122   130   119   119
   119   120   110   110
   123   128   138   138
   131   129   139   139
    30    34    29    29
    30    33    34    34
   105    37    38    38
   124   103   132   132
    32    33    30    30
    32    30    31    31
   122   119   129   129
   134   133    37    37
   114    54    55    55
   123   131   139   139
   103   123   138   138
   103   138    35    35
   115   114   123   123
    78    77    86    86
    44    95    94    94
    43    94    42    42
    48    49    96    96
   114    56   113   113
   113    57    58    58
   112    58    59    59
   121   111   120   120
   114   113   130   130
   112    62   111   111
   112   121   113   113
   115    53   114   114
   112   113    58    58
   122   114   130   130
    96    49    50    50
    97    50    51    51
    67    17    66    66
   112    59    60    60
   112    60    61    61
   114   131   123   123
   114    53    54    54
    46    95    45    45
    85    93    94    94
    47    96    95    95
    85    84    93    93
   106    98    97    97
    67    66    75    75
   121   120   130   130
   121   130   113   113
   122   129   131   131
   122   131   114   114
    76    68    67    67
    44    94    43    43
    45    95    44    44
    47    95    46    46
    48    96    47    47
   112    61    62    62
   112   111   121   121
    98    89    97    97
   107   115   116   116
    17    18    66    66
    77    85    86    86
    86    85    94    94
    76    84    85    85
    87    95    96    96
    87    86    95    95
    77    76    85    85
    80    79    88    88
    77    69    68    68
    15    68    69    69
    16    67    68    68
    81    90     9     9
    79    78    87    87
    72    12    71    71
    16    17    67    67
    16    68    15    15
    76    67    75    75
    76    75    84    84
    78    86    87    87
    77    68    76    76
    97    96    50    50
    78    69    77    77
   106    97    51    51
    79    87    88    88
    88    87    96    96
    14    69    70    70
    70    69    78    78
    81    10    72    72
    79    71    70    70
    72    11    12    12
    13    71    12    12
    81    89    90    90
    72    10    11    11
    13    70    71    71
    14    15    69    69
    14    70    13    13
    97    89    88    88
   108   107   116   116
    90     8     9     9
    81    80    89    89
    79    70    78    78
    80    88    89    89
    80    72    71    71
    80    71    79    79
    81     9    10    10
    81    72    80    80
   126     5   117   117
   115    52    53    53
   124   125   116   116
   125   117   116   116
   125   126   117   117
     6   117     5     5
   108    99   107   107
    98    90    89    89
    99     8    90    90
    97    88    96    96
   106    51    52    52
   108     7    99    99
   107    99    98    98
    99     7     8     8
    99    90    98    98
   106    52   115   115
   107   106   115   115
   107    98   106   106
   108   116   117   117
   108   117     6     6
   108     6     7     7
   136     3   135   135
   124   116   115   115
   104   124    36    36
   133    36    37    37
   134   125   133   133
   135   134    38    38
   136    39    40    40
   136    40     2     2
     4   126   135   135
   135   126   134   134
   104   125   124   124
   134   126   125   125
   105   134    37    37
   136    38    39    39
     4   135     3     3
     1     2    40    40
     4     5   126   126
   124   115   123   123
   124   132    36    36
   104    36   133   133
   104   133   125   125
   105    38   134   134
   136     2     3     3
   136   135    38    38
