 TITLE = " disp    time =  0.0000    prop =  0.0000 "
 VARIABLES = X Y Z UX UY UZ
 ZONE T = "ZONE ONE", I =   140,J =   218, F = FEPOINT
  0.286735E+04  0.208096E+02  0.287407E+01  0.000000E+00  0.000000E+00  0.000000E+00
  0.286735E+04  0.541071E+03  0.143703E+01  0.000000E+00  0.000000E+00  0.000000E+00
  0.286735E+04  0.106133E+04  0.000000E+00  0.000000E+00  0.000000E+00  0.000000E+00
  0.286735E+04  0.158160E+04  0.287407E+01  0.000000E+00  0.000000E+00  0.000000E+00
  0.286735E+04  0.210186E+04  0.143703E+01  0.000000E+00  0.000000E+00  0.000000E+00
  0.286735E+04  0.262212E+04  0.000000E+00  0.000000E+00  0.000000E+00  0.000000E+00
  0.286735E+04  0.314238E+04  0.287407E+01  0.000000E+00  0.000000E+00  0.000000E+00
  0.286735E+04  0.366264E+04  0.143703E+01  0.000000E+00  0.000000E+00  0.000000E+00
  0.286735E+04  0.418290E+04  0.000000E+00  0.000000E+00  0.000000E+00  0.000000E+00
  0.286735E+04  0.470317E+04  0.287407E+01  0.000000E+00  0.000000E+00  0.000000E+00
  0.286735E+04  0.522140E+04  0.287407E+01  0.000000E+00  0.000000E+00  0.000000E+00
  0.229363E+04  0.522140E+04  0.718517E+00  0.000000E+00  0.000000E+00  0.000000E+00
  0.171991E+04  0.522140E+04  0.287407E+01  0.000000E+00  0.000000E+00  0.000000E+00
  0.114744E+04  0.522140E+04  0.287407E+01  0.000000E+00  0.000000E+00  0.000000E+00
  0.573718E+03  0.522140E+04  0.718517E+00  0.000000E+00  0.000000E+00  0.000000E+00
  0.000000E+00  0.522140E+04  0.287407E+01  0.000000E+00  0.000000E+00  0.000000E+00
 -0.573718E+03  0.522140E+04  0.718517E+00  0.000000E+00  0.000000E+00  0.000000E+00
 -0.114744E+04  0.522140E+04  0.287407E+01  0.000000E+00  0.000000E+00  0.000000E+00
 -0.171991E+04  0.522140E+04  0.287407E+01  0.000000E+00  0.000000E+00  0.000000E+00
 -0.229363E+04  0.522140E+04  0.718517E+00  0.000000E+00  0.000000E+00  0.000000E+00
 -0.286735E+04  0.522140E+04  0.287407E+01  0.000000E+00  0.000000E+00  0.000000E+00
 -0.286735E+04  0.470317E+04  0.287407E+01  0.000000E+00  0.000000E+00  0.000000E+00
 -0.286735E+04  0.418290E+04  0.000000E+00  0.000000E+00  0.000000E+00  0.000000E+00
 -0.286735E+04  0.366264E+04  0.143703E+01  0.000000E+00  0.000000E+00  0.000000E+00
 -0.286735E+04  0.314238E+04  0.287407E+01  0.000000E+00  0.000000E+00  0.000000E+00
 -0.286735E+04  0.262212E+04  0.000000E+00  0.000000E+00  0.000000E+00  0.000000E+00
 -0.286735E+04  0.210186E+04  0.143703E+01  0.000000E+00  0.000000E+00  0.000000E+00
 -0.286735E+04  0.158160E+04  0.287407E+01  0.000000E+00  0.000000E+00  0.000000E+00
 -0.286735E+04  0.106133E+04  0.000000E+00  0.000000E+00  0.000000E+00  0.000000E+00
 -0.286735E+04  0.541071E+03  0.143703E+01  0.000000E+00  0.000000E+00  0.000000E+00
 -0.286735E+04  0.208096E+02  0.287407E+01  0.000000E+00  0.000000E+00  0.000000E+00
 -0.229363E+04  0.208096E+02  0.718517E+00  0.000000E+00  0.000000E+00  0.000000E+00
 -0.171991E+04  0.208096E+02  0.287407E+01  0.000000E+00  0.000000E+00  0.000000E+00
 -0.114744E+04  0.208096E+02  0.287407E+01  0.000000E+00  0.000000E+00  0.000000E+00
 -0.573718E+03  0.208096E+02  0.718517E+00  0.000000E+00  0.000000E+00  0.000000E+00
  0.000000E+00  0.208096E+02  0.287407E+01  0.000000E+00  0.000000E+00  0.000000E+00
  0.573718E+03  0.208096E+02  0.718517E+00  0.000000E+00  0.000000E+00  0.000000E+00
  0.114744E+04  0.208096E+02  0.287407E+01  0.000000E+00  0.000000E+00  0.000000E+00
  0.171991E+04  0.208096E+02  0.287407E+01  0.000000E+00  0.000000E+00  0.000000E+00
  0.229363E+04  0.208096E+02  0.718517E+00  0.000000E+00  0.000000E+00  0.000000E+00
 -0.124451E+01  0.176450E+04  0.718517E+00  0.000000E+00  0.000000E+00  0.000000E+00
 -0.124451E+01  0.193928E+04  0.215555E+01  0.000000E+00  0.000000E+00  0.000000E+00
 -0.124451E+01  0.211405E+04  0.359258E+01  0.000000E+00  0.000000E+00  0.000000E+00
 -0.124451E+01  0.228679E+04  0.215555E+01  0.000000E+00  0.000000E+00  0.000000E+00
 -0.124451E+01  0.246157E+04  0.359258E+01  0.000000E+00  0.000000E+00  0.000000E+00
 -0.124451E+01  0.263634E+04  0.718517E+00  0.000000E+00  0.000000E+00  0.000000E+00
 -0.124451E+01  0.281112E+04  0.215555E+01  0.000000E+00  0.000000E+00  0.000000E+00
 -0.124451E+01  0.298590E+04  0.359258E+01  0.000000E+00  0.000000E+00  0.000000E+00
 -0.124451E+01  0.316067E+04  0.718517E+00  0.000000E+00  0.000000E+00  0.000000E+00
 -0.124451E+01  0.333341E+04  0.359258E+01  0.000000E+00  0.000000E+00  0.000000E+00
 -0.124451E+01  0.350819E+04  0.718517E+00  0.000000E+00  0.000000E+00  0.000000E+00
  0.124451E+01  0.350819E+04  0.718517E+00  0.000000E+00  0.000000E+00  0.000000E+00
  0.124451E+01  0.333341E+04  0.359258E+01  0.000000E+00  0.000000E+00  0.000000E+00
  0.124451E+01  0.316067E+04  0.718517E+00  0.000000E+00  0.000000E+00  0.000000E+00
  0.124451E+01  0.298590E+04  0.359258E+01  0.000000E+00  0.000000E+00  0.000000E+00
  0.124451E+01  0.281112E+04  0.215555E+01  0.000000E+00  0.000000E+00  0.000000E+00
  0.124451E+01  0.263634E+04  0.718517E+00  0.000000E+00  0.000000E+00  0.000000E+00
  0.124451E+01  0.246157E+04  0.359258E+01  0.000000E+00  0.000000E+00  0.000000E+00
  0.124451E+01  0.228679E+04  0.215555E+01  0.000000E+00  0.000000E+00  0.000000E+00
  0.124451E+01  0.211405E+04  0.359258E+01  0.000000E+00  0.000000E+00  0.000000E+00
  0.124451E+01  0.193928E+04  0.215555E+01  0.000000E+00  0.000000E+00  0.000000E+00
  0.124451E+01  0.176450E+04  0.718517E+00  0.000000E+00  0.000000E+00  0.000000E+00
 -0.229363E+04  0.541071E+03  0.359258E+01  0.000000E+00  0.000000E+00  0.000000E+00
 -0.229363E+04  0.106133E+04  0.215555E+01  0.000000E+00  0.000000E+00  0.000000E+00
 -0.229363E+04  0.158160E+04  0.718517E+00  0.000000E+00  0.000000E+00  0.000000E+00
 -0.229363E+04  0.210186E+04  0.359258E+01  0.000000E+00  0.000000E+00  0.000000E+00
 -0.229363E+04  0.262212E+04  0.215555E+01  0.000000E+00  0.000000E+00  0.000000E+00
 -0.229363E+04  0.314238E+04  0.718517E+00  0.000000E+00  0.000000E+00  0.000000E+00
 -0.229363E+04  0.366264E+04  0.359258E+01  0.000000E+00  0.000000E+00  0.000000E+00
 -0.229363E+04  0.418290E+04  0.215555E+01  0.000000E+00  0.000000E+00  0.000000E+00
 -0.229363E+04  0.470317E+04  0.718517E+00  0.000000E+00  0.000000E+00  0.000000E+00
 -0.171991E+04  0.541071E+03  0.143703E+01  0.000000E+00  0.000000E+00  0.000000E+00
 -0.171991E+04  0.106133E+04  0.000000E+00  0.000000E+00  0.000000E+00  0.000000E+00
 -0.171991E+04  0.158160E+04  0.287407E+01  0.000000E+00  0.000000E+00  0.000000E+00
 -0.171991E+04  0.210186E+04  0.143703E+01  0.000000E+00  0.000000E+00  0.000000E+00
 -0.171991E+04  0.262212E+04  0.000000E+00  0.000000E+00  0.000000E+00  0.000000E+00
 -0.171991E+04  0.314238E+04  0.287407E+01  0.000000E+00  0.000000E+00  0.000000E+00
 -0.171991E+04  0.366264E+04  0.143703E+01  0.000000E+00  0.000000E+00  0.000000E+00
 -0.171991E+04  0.418290E+04  0.000000E+00  0.000000E+00  0.000000E+00  0.000000E+00
 -0.171991E+04  0.470317E+04  0.287407E+01  0.000000E+00  0.000000E+00  0.000000E+00
 -0.114744E+04  0.541071E+03  0.143703E+01  0.000000E+00  0.000000E+00  0.000000E+00
 -0.114744E+04  0.106133E+04  0.000000E+00  0.000000E+00  0.000000E+00  0.000000E+00
 -0.114744E+04  0.158160E+04  0.287407E+01  0.000000E+00  0.000000E+00  0.000000E+00
 -0.114744E+04  0.210186E+04  0.143703E+01  0.000000E+00  0.000000E+00  0.000000E+00
 -0.114744E+04  0.262212E+04  0.000000E+00  0.000000E+00  0.000000E+00  0.000000E+00
 -0.114744E+04  0.314238E+04  0.287407E+01  0.000000E+00  0.000000E+00  0.000000E+00
 -0.114744E+04  0.366264E+04  0.143703E+01  0.000000E+00  0.000000E+00  0.000000E+00
 -0.114744E+04  0.418290E+04  0.000000E+00  0.000000E+00  0.000000E+00  0.000000E+00
 -0.114744E+04  0.470317E+04  0.287407E+01  0.000000E+00  0.000000E+00  0.000000E+00
 -0.573718E+03  0.541071E+03  0.359258E+01  0.000000E+00  0.000000E+00  0.000000E+00
 -0.573718E+03  0.106133E+04  0.215555E+01  0.000000E+00  0.000000E+00  0.000000E+00
 -0.573718E+03  0.158160E+04  0.718517E+00  0.000000E+00  0.000000E+00  0.000000E+00
 -0.573718E+03  0.210186E+04  0.359258E+01  0.000000E+00  0.000000E+00  0.000000E+00
 -0.573718E+03  0.262212E+04  0.215555E+01  0.000000E+00  0.000000E+00  0.000000E+00
 -0.573718E+03  0.314238E+04  0.718517E+00  0.000000E+00  0.000000E+00  0.000000E+00
 -0.573718E+03  0.366264E+04  0.359258E+01  0.000000E+00  0.000000E+00  0.000000E+00
 -0.573718E+03  0.418290E+04  0.215555E+01  0.000000E+00  0.000000E+00  0.000000E+00
 -0.573718E+03  0.470317E+04  0.718517E+00  0.000000E+00  0.000000E+00  0.000000E+00
  0.000000E+00  0.541071E+03  0.143703E+01  0.000000E+00  0.000000E+00  0.000000E+00
  0.000000E+00  0.106133E+04  0.000000E+00  0.000000E+00  0.000000E+00  0.000000E+00
  0.000000E+00  0.158160E+04  0.287407E+01  0.000000E+00  0.000000E+00  0.000000E+00
  0.229363E+04  0.366264E+04  0.359258E+01  0.000000E+00  0.000000E+00  0.000000E+00
  0.229363E+04  0.418290E+04  0.215555E+01  0.000000E+00  0.000000E+00  0.000000E+00
  0.229363E+04  0.470317E+04  0.718517E+00  0.000000E+00  0.000000E+00  0.000000E+00
  0.000000E+00  0.366264E+04  0.143703E+01  0.000000E+00  0.000000E+00  0.000000E+00
  0.000000E+00  0.418290E+04  0.000000E+00  0.000000E+00  0.000000E+00  0.000000E+00
  0.000000E+00  0.470317E+04  0.287407E+01  0.000000E+00  0.000000E+00  0.000000E+00
  0.573718E+03  0.541071E+03  0.359258E+01  0.000000E+00  0.000000E+00  0.000000E+00
  0.573718E+03  0.106133E+04  0.215555E+01  0.000000E+00  0.000000E+00  0.000000E+00
  0.573718E+03  0.158160E+04  0.718517E+00  0.000000E+00  0.000000E+00  0.000000E+00
  0.573718E+03  0.210186E+04  0.359258E+01  0.000000E+00  0.000000E+00  0.000000E+00
  0.573718E+03  0.262212E+04  0.215555E+01  0.000000E+00  0.000000E+00  0.000000E+00
  0.573718E+03  0.314238E+04  0.718517E+00  0.000000E+00  0.000000E+00  0.000000E+00
  0.573718E+03  0.366264E+04  0.359258E+01  0.000000E+00  0.000000E+00  0.000000E+00
  0.573718E+03  0.418290E+04  0.215555E+01  0.000000E+00  0.000000E+00  0.000000E+00
  0.573718E+03  0.470317E+04  0.718517E+00  0.000000E+00  0.000000E+00  0.000000E+00
  0.114744E+04  0.541071E+03  0.143703E+01  0.000000E+00  0.000000E+00  0.000000E+00
  0.114744E+04  0.106133E+04  0.000000E+00  0.000000E+00  0.000000E+00  0.000000E+00
  0.114744E+04  0.158160E+04  0.287407E+01  0.000000E+00  0.000000E+00  0.000000E+00
  0.114744E+04  0.210186E+04  0.143703E+01  0.000000E+00  0.000000E+00  0.000000E+00
  0.114744E+04  0.262212E+04  0.000000E+00  0.000000E+00  0.000000E+00  0.000000E+00
  0.114744E+04  0.314238E+04  0.287407E+01  0.000000E+00  0.000000E+00  0.000000E+00
  0.114744E+04  0.366264E+04  0.143703E+01  0.000000E+00  0.000000E+00  0.000000E+00
  0.114744E+04  0.418290E+04  0.000000E+00  0.000000E+00  0.000000E+00  0.000000E+00
  0.114744E+04  0.470317E+04  0.287407E+01  0.000000E+00  0.000000E+00  0.000000E+00
  0.171991E+04  0.541071E+03  0.143703E+01  0.000000E+00  0.000000E+00  0.000000E+00
  0.171991E+04  0.106133E+04  0.000000E+00  0.000000E+00  0.000000E+00  0.000000E+00
  0.171991E+04  0.158160E+04  0.287407E+01  0.000000E+00  0.000000E+00  0.000000E+00
  0.171991E+04  0.210186E+04  0.143703E+01  0.000000E+00  0.000000E+00  0.000000E+00
  0.171991E+04  0.262212E+04  0.000000E+00  0.000000E+00  0.000000E+00  0.000000E+00
  0.171991E+04  0.314238E+04  0.287407E+01  0.000000E+00  0.000000E+00  0.000000E+00
  0.171991E+04  0.366264E+04  0.143703E+01  0.000000E+00  0.000000E+00  0.000000E+00
  0.171991E+04  0.418290E+04  0.000000E+00  0.000000E+00  0.000000E+00  0.000000E+00
  0.171991E+04  0.470317E+04  0.287407E+01  0.000000E+00  0.000000E+00  0.000000E+00
  0.229363E+04  0.541071E+03  0.359258E+01  0.000000E+00  0.000000E+00  0.000000E+00
  0.229363E+04  0.106133E+04  0.215555E+01  0.000000E+00  0.000000E+00  0.000000E+00
  0.229363E+04  0.158160E+04  0.718517E+00  0.000000E+00  0.000000E+00  0.000000E+00
  0.229363E+04  0.210186E+04  0.359258E+01  0.000000E+00  0.000000E+00  0.000000E+00
  0.229363E+04  0.262212E+04  0.215555E+01  0.000000E+00  0.000000E+00  0.000000E+00
  0.229363E+04  0.314238E+04  0.718517E+00  0.000000E+00  0.000000E+00  0.000000E+00
    30    32    63    63
    72    33    34    34
    72    63    33    33
    29    64    28    28
    63    32    33    33
    73    64    72    72
    28    64    65    65
    73    65    64    64
   113    54    55    55
    29    63    64    64
    72    64    63    63
    81    72    34    34
    30    31    32    32
    30    63    29    29
    81    73    72    72
    74    65    73    73
    82    73    81    81
   111    61    62    62
    91    99   100   100
    82    74    73    73
    90    36    99    99
    83    74    82    82
    90    82    81    81
    35    81    34    34
    37   108    99    99
    91    90    99    99
   109   101   100   100
    92   100   101   101
   108   100    99    99
    92    91   100   100
   109   100   108   108
    41    92   101   101
   110   101   109   109
   129   121   120   120
    37    99    36    36
    38   117   108   108
   126    40   135   135
   110    62   101   101
    90    81    35    35
    90    35    36    36
    91    83    82    82
    91    82    90    90
    39   117    38    38
    41   101    62    62
    92    83    91    91
   127   119   118   118
   126    39    40    40
   129   120   128   128
   112   111   120   120
   118   109   117   117
   140   139     6     6
   138   130   129   129
   117   109   108   108
    38   108    37    37
   127   135   136   136
   118   110   109   109
   111   119   120   120
   119   110   118   118
   127   136   128   128
   136     2     3     3
   137   136     3     3
   139   138     5     5
     1   135    40    40
   136   135     2     2
   137     3     4     4
   127   126   135   135
   138     4     5     5
   137   128   136   136
   126   118   117   117
   126   117    39    39
   127   128   119   119
   127   118   126   126
     1     2   135   135
   130   121   129   129
    95    48    49    49
   103   102     8     8
   111    60    61    61
   120   119   128   128
    93    92    41    41
   111    59    60    60
    56   113    55    55
    85    94    86    86
   129   128   137   137
   138   129   137   137
   139   131   130   130
   130   122   121   121
   102     7     8     8
   131   122   130   130
   138   137     4     4
   139     5     6     6
   140     6     7     7
   139   130   138   138
   140   131   139   139
    43    93    42    42
   111    62   110   110
   112    59   111   111
    95    47    48    48
    96    50    51    51
    95    49    50    50
    44    94    93    93
   102   132   140   140
    86    94    95    95
    77    76    85    85
    70    22    23    23
    97    89    88    88
   114   106   105   105
   114    53   113   113
   111   110   119   119
   112   120   121   121
   113   121   122   122
   113    53    54    54
    93    41    42    42
    84    92    93    93
    95    94    47    47
    85    93    94    94
    96   105    97    97
    75    66    74    74
   113   112   121   121
   123   131   132   132
    56   112   113   113
    57   112    56    56
    58    59   112   112
    58   112    57    57
    44    93    43    43
    45    94    44    44
    46    47    94    94
    46    94    45    45
    26    67    25    25
    75    67    66    66
    84    75    83    83
    84    93    85    85
    27    65    66    66
    66    65    74    74
    78    86    87    87
    68    25    67    67
    79    78    87    87
    26    66    67    67
    27    28    65    65
    27    66    26    26
    76    68    67    67
    70    23    69    69
    75    74    83    83
    84    76    75    75
    77    85    86    86
    76    67    75    75
    96    51   105   105
    77    68    76    76
    84    83    92    92
    84    85    76    76
    98    89    97    97
    78    77    86    86
    71    21    22    22
    87    86    95    95
    96    87    95    95
   106    98    97    97
    78    70    69    69
    69    23    24    24
    24    25    68    68
    69    24    68    68
    89    18    19    19
    80    79    88    88
    69    68    77    77
    80    89    19    19
    80    20    71    71
    79    71    70    70
    71    20    21    21
    71    22    70    70
    78    69    77    77
    79    87    88    88
    79    70    78    78
    80    88    89    89
    80    19    20    20
    80    71    79    79
   104   103     9     9
    98    18    89    89
    96    88    87    87
   105    51    52    52
   107    98   106   106
    98    17    18    18
   114    52    53    53
   114   105    52    52
   115   107   106   106
   106    97   105   105
    16   116    15    15
   107    17    98    98
   114   113   122   122
   124   132   133   133
   115   116   107   107
   115   106   114   114
   124   123   132   132
    16    17   107   107
    16   107   116   116
    96    97    88    88
    96    95    50    50
   102   133   132   132
   125    14    15    15
   123   115   114   114
   132   131   140   140
   103   134   133   133
   124   116   115   115
    12    10    11    11
   125   116   124   124
   104   134   103   103
    14   134    13    13
   104    13   134   134
   123   114   122   122
   123   122   131   131
   125   133   134   134
   124   115   123   123
   125    15   116   116
   102   140     7     7
   103     8     9     9
   103   133   102   102
   104     9    10    10
   104    10    12    12
   104    12    13    13
   125   124   133   133
   125   134    14    14
